<?xml version='1.0'?>
<!-- case='sprayFoam2306_aachenBomb' cloud='sprayCloud' time='1e-06' index='1' -->
<VTKFile type='PolyData' version='0.1' byte_order='LittleEndian' header_type='UInt64'>
  <PolyData>
    <FieldData>
      <DataArray type='Float32' Name='TimeValue' NumberOfTuples='1' format='ascii'>
1e-06
      </DataArray>
    </FieldData>
    <Piece NumberOfPoints='1'>
      <Points>
        <DataArray type='Float32' Name='Points' NumberOfComponents='3' format='ascii'>
-3.72501e-05 0.099271 5.8848e-07
        </DataArray>
      </Points>
      <PointData>
        <DataArray type='Int32' Name='active' format='ascii'>
1
        </DataArray>
        <DataArray type='Int32' Name='origId' format='ascii'>
0
        </DataArray>
        <DataArray type='Int32' Name='origProcId' format='ascii'>
0
        </DataArray>
        <DataArray type='Int32' Name='typeId' format='ascii'>
-1
        </DataArray>
        <DataArray type='Float32' Name='Cp' format='ascii'>
2323.4
        </DataArray>
        <DataArray type='Float32' Name='KHindex' format='ascii'>
0
        </DataArray>
        <DataArray type='Float32' Name='T' format='ascii'>
319.967
        </DataArray>
        <DataArray type='Float32' Name='YC7H16(l)' format='ascii'>
1
        </DataArray>
        <DataArray type='Float32' Name='age' format='ascii'>
2e-06
        </DataArray>
        <DataArray type='Float32' Name='d' format='ascii'>
9.9158e-05
        </DataArray>
        <DataArray type='Float32' Name='d0' format='ascii'>
0.0001
        </DataArray>
        <DataArray type='Float32' Name='dTarget' format='ascii'>
0
        </DataArray>
        <DataArray type='Float32' Name='injector' format='ascii'>
1
        </DataArray>
        <DataArray type='Float32' Name='liquidCore' format='ascii'>
0
        </DataArray>
        <DataArray type='Float32' Name='mass0' format='ascii'>
3.46982e-10
        </DataArray>
        <DataArray type='Float32' Name='ms' format='ascii'>
0
        </DataArray>
        <DataArray type='Float32' Name='mu' format='ascii'>
0.000311863
        </DataArray>
        <DataArray type='Float32' Name='nParticle' format='ascii'>
1.58772
        </DataArray>
        <DataArray type='Float32' Name='rho' format='ascii'>
662.717
        </DataArray>
        <DataArray type='Float32' Name='sigma' format='ascii'>
0.0176192
        </DataArray>
        <DataArray type='Float32' Name='tMom' format='ascii'>
0.00141793
        </DataArray>
        <DataArray type='Float32' Name='tTurb' format='ascii'>
0
        </DataArray>
        <DataArray type='Float32' Name='tc' format='ascii'>
0
        </DataArray>
        <DataArray type='Float32' Name='user' format='ascii'>
0
        </DataArray>
        <DataArray type='Float32' Name='y' format='ascii'>
0
        </DataArray>
        <DataArray type='Float32' Name='yDot' format='ascii'>
0
        </DataArray>
        <DataArray type='Float32' Name='U' NumberOfComponents='3' format='ascii'>
0 -114.306 0
        </DataArray>
        <DataArray type='Float32' Name='UCorrect' NumberOfComponents='3' format='ascii'>
0 0 0
        </DataArray>
        <DataArray type='Float32' Name='UTurb' NumberOfComponents='3' format='ascii'>
0 0 0
        </DataArray>
        <DataArray type='Float32' Name='position0' NumberOfComponents='3' format='ascii'>
-3.72501e-05 0.0995 5.8848e-07
        </DataArray>
      </PointData>
    </Piece>
  </PolyData>
</VTKFile>
