# vtk DataFile Version 2.0
aachenBomb
ASCII
DATASET POLYDATA
POINTS 994 float
0.000101703 0.0990721 -5.6962e-05 -7.82041e-05 0.099133 -7.43812e-05 -8.19318e-05 0.0991259 3.03566e-05 -9.69315e-05 0.0990902
2.0666e-06 -7.50986e-05 0.0990833 7.41792e-06 -0.000136988 0.0990918 -2.38652e-05 -4.33089e-05 0.0990678 8.77126e-06
7.27268e-05 0.0990565 -8.89435e-05 -6.52669e-05 0.0990672 0.000141135 7.12598e-05 0.0990288 -4.40832e-05 -4.99209e-05
0.099039 -9.67338e-05 3.43198e-05 0.0990291 -3.37218e-05 1.03639e-05 0.0990058 -6.55777e-05 0.000103257 0.0990079
-7.08424e-05 3.72364e-05 0.0989837 7.98413e-05 -5.76786e-05 0.0989815 -7.60874e-06 -8.07464e-05 0.0989707 2.30374e-05
7.72206e-05 0.0989634 0.000124536 -2.42104e-06 0.0989467 0.000151423 -8.91721e-05 0.0989369 0.000109808 3.33584e-05
0.0989181 0.000142834 -1.78076e-05 0.0989091 -7.06189e-05 0.000167399 0.0989027 8.45449e-05 3.7525e-05 0.098886
5.03825e-05 -1.46765e-05 0.0988771 -0.000151021 0.000155188 0.0988673 -0.000113103 7.81005e-05 0.0988549 -0.000184255
-0.000180271 0.0988412 -4.10666e-05 0.000200131 0.0988303 4.14289e-05 5.02613e-05 0.09881 0.000119929 3.36191e-05
0.0988018 -0.00018465 -7.63896e-05 0.0987851 0.000118624 -5.49504e-05 0.0987809 8.04229e-07 -0.000178173 0.0987702
-2.7667e-05 5.76985e-05 0.0987405 2.00335e-05 0.000142081 0.0987411 0.000125023 7.60791e-05 0.098713 -5.20927e-05
-4.07605e-05 0.0987039 0.000122822 4.39282e-05 0.0986868 9.83831e-05 1.48593e-06 0.098683 -0.000179457 -7.46062e-05
0.0986843 -0.000187942 1.57182e-05 0.0986505 -0.000169475 -5.87378e-05 0.0986287 -4.40186e-05 -0.0001746 0.0986464
-4.39067e-05 -0.000188716 0.0986141 -0.000101061 -1.80366e-05 0.0986045 0.000234675 -6.96942e-05 0.0985897 0.00015666
-0.000192088 0.0985813 0.000138689 0.000246257 0.0985925 -4.32525e-05 -0.000204809 0.098547 7.26421e-05 -0.000169719
0.098533 0.000125405 -0.000232579 0.0985421 0.000105972 -0.000100815 0.0984941 -3.30033e-05 -0.000104711 0.0984857
0.000138832 -0.000131804 0.0984912 -0.000122259 -0.000206848 0.0984749 -0.00014001 0.00013974 0.0984504 -0.000127789
2.90286e-06 0.098454 0.000206798 3.47868e-05 0.0984262 -0.000155857 -4.13805e-05 0.0983955 7.21449e-05 -7.19496e-05
0.0983896 0.000117222 -6.55951e-05 0.0984565 -0.000243778 -3.08954e-05 0.0985656 0.000117323 -5.80857e-05 0.0984217
1.13848e-05 -0.00023235 0.0983561 -1.26981e-05 -5.5511e-05 0.0983585 0.000177906 0.0001506 0.0983582 -5.19354e-05
-0.00011213 0.0983535 0.000133305 6.40387e-05 0.0983617 0.000252 -0.000195831 0.0983494 3.94632e-05 -0.000105669
0.0983244 9.43195e-05 -7.06715e-05 0.0982641 -6.78154e-05 0.000146161 0.0983364 0.000156592 0.00017 0.098261
0.000175063 0.000132677 0.0982685 0.00024646 -0.00021127 0.0982737 2.87819e-05 2.71204e-06 0.0982439 0.000217996
-0.000241281 0.098253 -0.000174474 -6.99737e-05 0.0982196 0.000236034 9.44374e-05 0.0982483 0.000242666 -0.000177528
0.0981816 -1.77427e-05 0.000164445 0.0981807 -0.000260019 -4.8884e-05 0.0982704 -0.000233186 0.000157442 0.0982498
-0.000183373 -5.60104e-05 0.0981448 0.000148156 -9.94702e-05 0.0981485 -0.000227928 2.46607e-05 0.0981521 0.000108748
-2.3242e-06 0.0981131 -0.000250454 0.000279296 0.0981109 6.60212e-05 1.69631e-05 0.0981847 0.000244839 0.000236752
0.0980993 -0.000153937 -0.000145085 0.0981226 -0.000160581 0.000249953 0.0981256 -0.000113794 0.000161027 0.0980619
1.44979e-05 0.000223033 0.0980948 2.47277e-05 0.000268598 0.09804 8.09919e-05 -0.000214159 0.0980194 8.06595e-05
0.000128212 0.0980135 0.000172689 -7.04617e-05 0.0980287 0.000324601 -1.42164e-05 0.0980383 -3.07822e-05 -0.000244215
0.0979939 0.000193341 -0.000309781 0.0979767 -4.0587e-05 0.000279495 0.0979812 -5.77627e-05 -0.000139727 0.0980741
0.000144272 0.000216856 0.0979581 3.1671e-06 -4.53696e-06 0.0979837 0.000190906 -0.000294773 0.0979432 0.000180381
8.88759e-05 0.0979451 -0.000321297 5.48368e-05 0.0979034 -2.431e-05 -5.91837e-05 0.0978858 0.000141225 -0.00016393
0.0978538 0.000131982 -0.000270133 0.0980445 -2.83945e-05 0.000237684 0.0978903 -0.00022144 -0.00012644 0.0978393
2.84707e-05 0.000191474 0.0978417 0.000257931 -0.000192374 0.097813 5.56799e-05 0.000139607 0.0979569 -0.000124593
0.000167306 0.0978027 -3.94221e-05 -0.000178069 0.0978124 0.000224362 7.5539e-05 0.0977527 -7.52068e-05 0.000235576
0.0978345 -0.000164112 0.000154897 0.0977543 9.12234e-05 2.04664e-05 0.0977245 -8.01798e-05 0.000128372 0.0978045
-0.00029962 -0.000152602 0.0982945 -0.000179806 0.000315634 0.0977242 0.000231427 0.000257311 0.098044 0.000208555
0.000307364 0.0977525 0.000197598 -0.000269938 0.0978629 8.02282e-05 0.000183303 0.0976619 -8.51849e-05 -2.81574e-05
0.0976564 -0.000295822 5.70763e-05 0.0977098 0.000271566 -0.000132601 0.0977604 -7.26679e-06 -0.000199965 0.0976529
6.59711e-05 6.42628e-05 0.0976573 -0.000145328 0.000131123 0.0980457 -0.000228143 0.000296452 0.0977738 -2.01117e-05
0.000109857 0.0977216 9.90898e-06 8.28499e-05 0.0976147 -0.0001356 -0.000284535 0.0976253 4.99776e-05 2.73117e-06
0.0976362 0.000117599 0.000213304 0.0977765 6.18116e-05 0.000103912 0.0977259 -0.00014476 0.000347167 0.0975807
-0.00018243 -0.000139888 0.0976025 -0.000275531 -0.000293261 0.0975526 9.29148e-05 -3.17481e-05 0.097556 -0.000291651
-0.000253473 0.0975529 -0.000309607 -0.000127258 0.0974893 2.71219e-05 0.000204227 0.0975716 0.000202824 -0.000288025
0.0978138 -5.00383e-05 0.000227054 0.0975103 -0.000237067 0.000123832 0.0974892 -0.000295243 2.06203e-05 0.0974324
-1.36213e-05 0.000191306 0.0974313 -4.02427e-05 -0.000335367 0.0975194 -0.000154601 -0.000333948 0.097619 0.000153547
0.00026944 0.0974423 -5.45074e-05 0.000272576 0.0976558 -0.000167069 5.86191e-06 0.0974367 1.33544e-05 7.11313e-05
0.0978648 0.000293481 0.00017222 0.0975269 0.000253734 -4.69041e-06 0.0974879 -0.000265497 -3.94146e-05 0.0973957
-0.000124403 -0.000266355 0.0973668 -7.45222e-05 0.000274843 0.0973875 -0.000123912 0.000214323 0.0975034 -0.000235665
-0.000251671 0.0975555 0.000279578 2.50529e-05 0.0975211 0.000422625 0.000111477 0.0974014 9.15557e-05 -0.000282372
0.0973499 -0.000342609 0.000114385 0.0972914 -0.000143747 -0.000401394 0.0975132 -8.63331e-05 0.00023677 0.0974133
-0.000232996 0.000185324 0.0973591 0.000211065 -0.000438615 0.0974129 5.50228e-05 7.23687e-05 0.0974754 0.000430048
0.00013207 0.0974247 0.00039006 -0.000276239 0.0973036 3.92736e-05 -0.000297295 0.0972859 -0.000252592 -0.000119766
0.0973174 -0.000237814 -0.000133151 0.0972382 0.000287696 0.000159238 0.0973656 -0.000254298 -0.000268208 0.0972896
8.78102e-05 0.00027485 0.0972327 -0.000316829 0.000277125 0.0978072 -0.000231563 0.000113172 0.0974582 0.000159256
6.78014e-05 0.097293 -0.000294636 -0.000228872 0.0971836 0.000102108 0.000224948 0.0972717 -0.00031373 3.72609e-07
0.0971909 0.000193288 0.000144926 0.0971382 -0.000181093 -6.08548e-06 0.0971193 -6.98955e-05 0.000124128 0.0971725
-0.000130981 0.000331617 0.0972381 -0.000308008 9.50272e-05 0.097223 0.000256138 -9.24523e-05 0.097191 -0.000438041
-0.000350209 0.0974798 -0.000241127 6.53444e-05 0.0972336 0.00029543 0.000184172 0.0971187 3.04063e-06 -0.000236164
0.0971632 0.000254488 -0.000254931 0.0971774 -5.16117e-05 0.000156002 0.0970444 -0.000195535 -0.000223816 0.0971183
0.00040185 -0.000293571 0.0970417 8.06966e-05 0.000425703 0.0970715 -0.000118152 0.000235297 0.0971647 0.000156665
-5.50614e-05 0.0978222 0.000262398 9.47619e-05 0.0972423 0.000327635 -1.69371e-05 0.0970574 0.00025346 0.000466687
0.0971283 0.000140716 0.00031087 0.0973272 9.03422e-05 -0.000151095 0.0969737 0.000119616 -2.69487e-05 0.0972912
0.000298488 -0.000354558 0.0970346 7.55192e-05 -0.000366066 0.0971211 -0.000285404 -7.23695e-05 0.0972037 -0.000119226
-0.000418502 0.0969969 0.000204471 0.000200462 0.0971706 0.000416308 -0.000211704 0.097034 0.000115687 0.000308604
0.0971012 -0.000102075 -0.000241665 0.0969611 -0.000228544 -0.000133945 0.0969383 0.000301123 -0.000232221 0.0969256
-0.000168046 -7.37961e-05 0.0972892 -0.000408775 0.000329426 0.0971267 -0.000150968 -4.61179e-05 0.0970357 -0.000441792
0.000152009 0.097173 0.000277329 -8.65801e-05 0.0980642 -0.000268317 0.000142771 0.0968965 -0.000257739 -6.32093e-05
0.0970695 -0.000409339 -0.000226267 0.0968558 -0.000210591 0.000131226 0.0968876 -0.000254024 9.48784e-05 0.0970817
-0.000439665 0.000115267 0.0970034 -1.4356e-05 -6.99003e-05 0.0969887 -0.000455404 -0.000288825 0.0969592 0.000300193
0.000353284 0.0970353 0.00020273 -7.5547e-05 0.0969532 6.79579e-06 -0.000282907 0.0968534 0.000320902 -0.00048191
0.0969073 -0.000119913 -0.000205258 0.0968387 0.000228515 6.40216e-05 0.0968901 -0.000229394 0.00031766 0.0969444
-0.000157056 -2.20117e-05 0.0970435 0.000351862 0.000393156 0.0970004 -0.000234476 -0.00022758 0.0968831 0.000453381
0.000366543 0.0969342 -0.000368462 0.000142691 0.0971115 0.000384736 6.68884e-05 0.09723 -0.000264116 0.000235157
0.0969226 0.000376915 0.000175293 0.0972745 -0.00039159 0.0004306 0.0972078 0.000169449 0.000311496 0.0976432
-0.000187961 -1.84277e-05 0.0968803 -0.000411323 0.000194936 0.0967168 7.09399e-05 0.000113614 0.0968156 -0.000159818
0.000162259 0.0968773 0.000193266 0.000505939 0.0969106 -0.00017884 -0.000317742 0.0967543 8.33037e-05 -9.31759e-05
0.0975202 0.000359948 -0.000180132 0.0969101 -0.000446229 -7.52613e-05 0.0972181 -0.00014823 -0.000178618 0.0966913
-0.000233268 5.06021e-05 0.0967432 5.10463e-05 -8.53505e-05 0.0967864 0.00010951 -0.000321557 0.0970946 -7.05568e-05
0.000523782 0.0967908 -0.000151396 0.000275051 0.0970448 2.78958e-06 -0.000111901 0.0970857 -0.000457489 -0.000261078
0.0970152 0.000128742 -0.000452594 0.0967605 -0.000127115 0.000276201 0.0967025 -3.01749e-06 0.000328699 0.0966642
0.000129594 -0.000325026 0.0971212 -0.000283834 0.000426181 0.0974699 -7.20387e-05 -0.000234057 0.0968157 0.000324087
0.000438674 0.0967853 -0.000154069 -0.000359962 0.0969179 -7.33476e-05 0.000315174 0.0967116 -0.000333136 -4.05843e-05
0.0968406 0.000183795 6.02991e-05 0.0968905 -0.000326813 -3.82421e-05 0.0973473 4.62234e-05 0.000564569 0.0966952
[...]
POINT_DATA 994
FIELD attributes 29
active 1 994 float
1 1 1 1 1 1 1 1 1 1 1
1 1 1 1 1 1 1 1 1 1
1 1 1 1 1 1 1 1 1 1
1 1 1 1 1 1 1 1 1 1
1 1 1 1 1 1 1 1 1 1
1 1 1 1 1 1 1 1 1 1
1 1 1 1 1 1 1 1 1 1
1 1 1 1 1 1 1 1 1 1
1 1 1 1 1 1 1 1 1 1
1 1 1 1 1 1 1 1 1 1
1 1 1 1 1 1 1 1 1 1
1 1 1 1 1 1 1 1 1 1
1 1 1 1 1 1 1 1 1 1
1 1 1 1 1 1 1 1 1 1
1 1 1 1 1 1 1 1 1 1
1 1 1 1 1 1 1 1 1 1
1 1 1 1 1 1 1 1 1 1
1 1 1 1 1 1 1 1 1 1
1 1 1 1 1 1 1 1 1 1
1 1 1 1 1 1 1 1 1 1
1 1 1 1 1 1 1 1 1 1
1 1 1 1 1 1 1 1 1 1
1 1 1 1 1 1 1 1 1 1
1 1 1 1 1 1 1 1 1 1
1 1 1 1 1 1 1 1 1 1
1 1 1 1 1 1 1 1 1 1
1 1 1 1 1 1 1 1 1 1
1 1 1 1 1 1 1 1 1 1
1 1 1 1 1 1 1 1 1 1
1 1 1 1 1 1 1 1 1 1
1 1 1 1 1 1 1 1 1 1
1 1 1 1 1 1 1 1 1 1
1 1 1 1 1 1 1 1 1 1
1 1 1 1 1 1 1 1 1 1
1 1 1 1 1 1 1 1 1 1
1 1 1 1 1 1 1 1 1 1
1 1 1 1 1 1 1 1 1 1
1 1 1 1 1 1 1 1 1 1
1 1 1 1 1 1 1 1 1 1
1 1 1 1 1 1 1 1 1 1
1 1 1 1 1 1 1 1 1 1
1 1 1 1 1 1 1 1 1 1
1 1 1 1 1 1 1 1 1 1
1 1 1 1 1 1 1 1 1 1
1 1 1 1 1 1 1 1 1 1
1 1 1 1 1 1 1 1 1 1
1 1 1 1 1 1 1 1 1 1
1 1 1 1 1 1 1 1 1 1
1 1 1 1 1 1 1 1 1 1
1 1 1 1 1 1 1 1 1 1
1 1 1 1 1 1 1 1 1 1
1 1 1 1 1 1 1 1 1 1
1 1 1 1 1 1 1 1 1 1
1 1 1 1 1 1 1 1 1 1
1 1 1 1 1 1 1 1 1 1
1 1 1 1 1 1 1 1 1 1
1 1 1 1 1 1 1 1 1 1
1 1 1 1 1 1 1 1 1 1
1 1 1 1 1 1 1 1 1 1
1 1 1 1 1 1 1 1 1 1
1 1 1 1 1 1 1 1 1 1
1 1 1 1 1 1 1 1 1 1
1 1 1 1 1 1 1 1 1 1
1 1 1 1 1 1 1 1 1 1
1 1 1 1 1 1 1 1 1 1
1 1 1 1 1 1 1 1 1 1
1 1 1 1 1 1 1 1 1 1
1 1 1 1 1 1 1 1 1 1
1 1 1 1 1 1 1 1 1 1
1 1 1 1 1 1 1 1 1 1
1 1 1 1 1 1 1 1 1 1
1 1 1 1 1 1 1 1 1 1
1 1 1 1 1 1 1 1 1 1
1 1 1 1 1 1 1 1 1 1
1 1 1 1 1 1 1 1 1 1
1 1 1 1 1 1 1 1 1 1
1 1 1 1 1 1 1 1 1 1
1 1 1 1 1 1 1 1 1 1
1 1 1 1 1 1 1 1 1 1
1 1 1 1 1 1 1 1 1 1
1 1 1 1 1 1 1 1 1 1
1 1 1 1 1 1 1 1 1 1
1 1 1 1 1 1 1 1 1 1
1 1 1 1 1 1 1 1 1 1
1 1 1 1 1 1 1 1 1 1
1 1 1 1 1 1 1 1 1 1
1 1 1 1 1 1 1 1 1 1
1 1 1 1 1 1 1 1 1 1
1 1 1 1 1 1 1 1 1 1
1 1 1 1 1 1 1 1 1 1
1 1 1 1 1 1 1 1 1 1
1 1 1 1 1 1 1 1 1 1
1 1 1 1 1 1 1 1 1 1
1 1 1 1 1 1 1 1 1 1
1 1 1 1 1 1 1 1 1 1
1 1 1 1 1 1 1 1 1 1
1 1 1 1 1 1 1 1 1 1
1 1 1 1 1 1 1 1 1 1
1 1 1 1 1 1 1 1 1 1
1 1 1 
origId 1 994 float
0 1 2 3 4 5 6 7 8 9 10
11 12 13 14 15 16 17 18 19 20
21 22 23 24 25 26 27 28 29 30
31 32 33 34 35 36 37 38 39 40
41 42 43 44 45 46 47 48 49 50
51 52 53 54 55 56 57 58 59 60
61 62 63 64 65 66 67 68 69 70
71 72 73 74 75 76 77 78 79 80
81 82 83 84 85 86 87 88 89 90
91 92 93 94 95 96 97 98 99 100
101 102 103 104 105 106 107 108 109 110
111 112 113 114 115 116 117 118 119 120
121 122 123 124 125 126 127 128 129 130
131 132 133 134 135 136 137 138 139 140
141 142 143 144 145 146 147 148 149 150
151 152 153 154 155 156 157 158 159 160
161 162 163 164 165 166 167 168 169 170
171 172 173 174 175 176 177 178 179 180
181 182 183 184 185 186 187 188 189 190
191 192 193 194 195 196 197 198 199 200
201 202 203 204 205 206 207 208 209 210
211 212 213 214 215 216 217 218 219 220
221 222 223 224 225 226 227 228 229 230
231 232 233 234 235 236 237 238 239 240
241 242 243 244 245 246 247 248 249 250
251 252 253 254 255 256 257 258 259 260
261 262 263 264 265 266 267 268 269 270
271 272 273 274 275 276 277 278 279 280
281 282 283 284 285 286 287 288 289 290
291 292 293 294 295 296 297 298 299 300
301 302 303 304 305 306 307 308 309 310
311 312 313 314 315 316 317 318 319 320
321 322 323 324 325 326 327 328 329 330
331 332 333 334 335 336 337 338 339 340
341 342 343 344 345 346 347 348 349 350
351 352 353 354 355 356 357 358 359 360
361 362 363 364 365 366 367 368 369 370
371 372 373 374 375 376 377 378 379 381
382 383 384 385 386 387 388 389 390 391
392 393 394 395 396 397 398 399 400 401
402 403 404 405 406 407 408 409 410 411
412 414 415 416 417 418 419 420 421 422
423 424 425 426 427 428 429 430 431 432
433 434 435 436 437 438 439 440 441 442
443 444 445 446 447 448 449 450 451 452
453 454 455 456 457 458 459 460 461 462
463 464 465 466 467 468 469 470 471 472
473 474 475 476 477 479 480 481 482 483
484 485 486 487 488 489 490 491 492 493
494 495 496 497 498 499 500 501 502 503
504 505 506 507 508 509 510 511 512 513
514 515 516 517 518 519 520 521 522 523
524 525 526 527 528 529 530 531 532 533
534 535 536 537 538 539 540 541 542 543
544 545 546 547 548 549 550 551 552 553
554 555 556 557 558 559 561 562 563 564
565 566 567 568 569 570 571 572 573 574
575 576 577 578 579 580 581 582 583 584
585 586 587 588 589 590 591 592 593 594
595 596 597 598 599 600 601 602 603 604
605 606 607 608 609 610 611 612 613 614
615 616 617 618 619 620 621 622 623 624
625 626 627 628 629 630 631 632 633 634
635 636 637 638 639 640 641 642 643 644
645 646 647 648 649 650 651 652 653 654
655 656 657 658 659 660 661 662 663 664
665 666 667 668 669 670 671 672 673 674
675 676 677 678 679 680 681 682 683 684
685 686 687 688 689 690 691 692 693 694
695 696 697 698 699 700 701 702 703 704
705 706 707 708 709 710 711 712 713 714
715 716 717 718 719 720 721 722 723 724
725 726 727 728 729 730 731 732 733 734
735 736 737 738 739 740 741 742 743 744
745 746 747 748 749 750 751 752 753 754
755 756 757 758 759 760 761 762 763 764
765 766 767 768 769 770 771 772 773 774
775 776 777 778 779 780 781 782 783 784
785 786 787 788 789 790 791 792 793 795
796 797 798 799 800 801 802 803 804 805
806 807 808 809 810 811 812 814 815 816
817 818 819 820 821 822 823 824 825 826
827 828 829 830 831 832 833 834 835 836
837 838 839 840 841 842 843 844 845 846
847 848 849 850 851 852 853 854 855 856
857 858 859 860 861 862 863 864 865 866
867 868 869 870 871 872 873 874 875 876
877 878 879 880 881 882 883 884 885 886
887 888 889 890 891 892 893 894 895 896
897 898 899 900 901 902 903 904 905 906
907 908 909 910 911 912 913 914 915 916
917 918 919 920 921 922 923 924 925 926
927 928 929 930 931 932 933 934 935 936
937 938 939 940 941 942 943 944 945 946
947 948 949 950 951 952 953 954 955 956
957 958 959 960 961 962 963 964 965 966
967 968 969 970 971 972 973 974 975 976
977 978 979 980 981 982 983 984 985 986
987 988 989 990 991 992 993 994 995 996
997 998 999 
typeId 1 994 float
-1 -1 -1 -1 -1 -1 -1 -1 -1 -1 -1
-1 -1 -1 -1 -1 -1 -1 -1 -1 -1
-1 -1 -1 -1 -1 -1 -1 -1 -1 -1
-1 -1 -1 -1 -1 -1 -1 -1 -1 -1
-1 -1 -1 -1 -1 -1 -1 -1 -1 -1
-1 -1 -1 -1 -1 -1 -1 -1 -1 -1
-1 -1 -1 -1 -1 -1 -1 -1 -1 -1
-1 -1 -1 -1 -1 -1 -1 -1 -1 -1
-1 -1 -1 -1 -1 -1 -1 -1 -1 -1
-1 -1 -1 -1 -1 -1 -1 -1 -1 -1
-1 -1 -1 -1 -1 -1 -1 -1 -1 -1
-1 -1 -1 -1 -1 -1 -1 -1 -1 -1
-1 -1 -1 -1 -1 -1 -1 -1 -1 -1
-1 -1 -1 -1 -1 -1 -1 -1 -1 -1
-1 -1 -1 -1 -1 -1 -1 -1 -1 -1
-1 -1 -1 -1 -1 -1 -1 -1 -1 -1
-1 -1 -1 -1 -1 -1 -1 -1 -1 -1
-1 -1 -1 -1 -1 -1 -1 -1 -1 -1
-1 -1 -1 -1 -1 -1 -1 -1 -1 -1
-1 -1 -1 -1 -1 -1 -1 -1 -1 -1
-1 -1 -1 -1 -1 -1 -1 -1 -1 -1
-1 -1 -1 -1 -1 -1 -1 -1 -1 -1
-1 -1 -1 -1 -1 -1 -1 -1 -1 -1
-1 -1 -1 -1 -1 -1 -1 -1 -1 -1
-1 -1 -1 -1 -1 -1 -1 -1 -1 -1
-1 -1 -1 -1 -1 -1 -1 -1 -1 -1
-1 -1 -1 -1 -1 -1 -1 -1 -1 -1
-1 -1 -1 -1 -1 -1 -1 -1 -1 -1
-1 -1 -1 -1 -1 -1 -1 -1 -1 -1
-1 -1 -1 -1 -1 -1 -1 -1 -1 -1
-1 -1 -1 -1 -1 -1 -1 -1 -1 -1
-1 -1 -1 -1 -1 -1 -1 -1 -1 -1
-1 -1 -1 -1 -1 -1 -1 -1 -1 -1
-1 -1 -1 -1 -1 -1 -1 -1 -1 -1
-1 -1 -1 -1 -1 -1 -1 -1 -1 -1
-1 -1 -1 -1 -1 -1 -1 -1 -1 -1
-1 -1 -1 -1 -1 -1 -1 -1 -1 -1
-1 -1 -1 -1 -1 -1 -1 -1 -1 -1
-1 -1 -1 -1 -1 -1 -1 -1 -1 -1
-1 -1 -1 -1 -1 -1 -1 -1 -1 -1
-1 -1 -1 -1 -1 -1 -1 -1 -1 -1
-1 -1 -1 -1 -1 -1 -1 -1 -1 -1
-1 -1 -1 -1 -1 -1 -1 -1 -1 -1
-1 -1 -1 -1 -1 -1 -1 -1 -1 -1
-1 -1 -1 -1 -1 -1 -1 -1 -1 -1
-1 -1 -1 -1 -1 -1 -1 -1 -1 -1
-1 -1 -1 -1 -1 -1 -1 -1 -1 -1
-1 -1 -1 -1 -1 -1 -1 -1 -1 -1
-1 -1 -1 -1 -1 -1 -1 -1 -1 -1
-1 -1 -1 -1 -1 -1 -1 -1 -1 -1
-1 -1 -1 -1 -1 -1 -1 -1 -1 -1
-1 -1 -1 -1 -1 -1 -1 -1 -1 -1
-1 -1 -1 -1 -1 -1 -1 -1 -1 -1
-1 -1 -1 -1 -1 -1 -1 -1 -1 -1
-1 -1 -1 -1 -1 -1 -1 -1 -1 -1
-1 -1 -1 -1 -1 -1 -1 -1 -1 -1
-1 -1 -1 -1 -1 -1 -1 -1 -1 -1
-1 -1 -1 -1 -1 -1 -1 -1 -1 -1
-1 -1 -1 -1 -1 -1 -1 -1 -1 -1
-1 -1 -1 -1 -1 -1 -1 -1 -1 -1
-1 -1 -1 -1 -1 -1 -1 -1 -1 -1
-1 -1 -1 -1 -1 -1 -1 -1 -1 -1
-1 -1 -1 -1 -1 -1 -1 -1 -1 -1
-1 -1 -1 -1 -1 -1 -1 -1 -1 -1
-1 -1 -1 -1 -1 -1 -1 -1 -1 -1
-1 -1 -1 -1 -1 -1 -1 -1 -1 -1
-1 -1 -1 -1 -1 -1 -1 -1 -1 -1
-1 -1 -1 -1 -1 -1 -1 -1 -1 -1
-1 -1 -1 -1 -1 -1 -1 -1 -1 -1
-1 -1 -1 -1 -1 -1 -1 -1 -1 -1
-1 -1 -1 -1 -1 -1 -1 -1 -1 -1
-1 -1 -1 -1 -1 -1 -1 -1 -1 -1
-1 -1 -1 -1 -1 -1 -1 -1 -1 -1
-1 -1 -1 -1 -1 -1 -1 -1 -1 -1
-1 -1 -1 -1 -1 -1 -1 -1 -1 -1
-1 -1 -1 -1 -1 -1 -1 -1 -1 -1
-1 -1 -1 -1 -1 -1 -1 -1 -1 -1
-1 -1 -1 -1 -1 -1 -1 -1 -1 -1
-1 -1 -1 -1 -1 -1 -1 -1 -1 -1
-1 -1 -1 -1 -1 -1 -1 -1 -1 -1
-1 -1 -1 -1 -1 -1 -1 -1 -1 -1
-1 -1 -1 -1 -1 -1 -1 -1 -1 -1
-1 -1 -1 -1 -1 -1 -1 -1 -1 -1
-1 -1 -1 -1 -1 -1 -1 -1 -1 -1
-1 -1 -1 -1 -1 -1 -1 -1 -1 -1
-1 -1 -1 -1 -1 -1 -1 -1 -1 -1
-1 -1 -1 -1 -1 -1 -1 -1 -1 -1
-1 -1 -1 -1 -1 -1 -1 -1 -1 -1
-1 -1 -1 -1 -1 -1 -1 -1 -1 -1
-1 -1 -1 -1 -1 -1 -1 -1 -1 -1
-1 -1 -1 -1 -1 -1 -1 -1 -1 -1
-1 -1 -1 -1 -1 -1 -1 -1 -1 -1
-1 -1 -1 -1 -1 -1 -1 -1 -1 -1
-1 -1 -1 -1 -1 -1 -1 -1 -1 -1
-1 -1 -1 -1 -1 -1 -1 -1 -1 -1
-1 -1 -1 -1 -1 -1 -1 -1 -1 -1
-1 -1 -1 -1 -1 -1 -1 -1 -1 -1
-1 -1 -1 -1 -1 -1 -1 -1 -1 -1
-1 -1 -1 -1 -1 -1 -1 -1 -1 -1
-1 -1 -1 
origProcId 1 994 float
0 0 0 0 0 0 0 0 0 0 0
0 0 0 0 0 0 0 0 0 0
0 0 0 0 0 0 0 0 0 0
0 0 0 0 0 0 0 0 0 0
0 0 0 0 0 0 0 0 0 0
0 0 0 0 0 0 0 0 0 0
0 0 0 0 0 0 0 0 0 0
0 0 0 0 0 0 0 0 0 0
0 0 0 0 0 0 0 0 0 0
0 0 0 0 0 0 0 0 0 0
0 0 0 0 0 0 0 0 0 0
0 0 0 0 0 0 0 0 0 0
0 0 0 0 0 0 0 0 0 0
0 0 0 0 0 0 0 0 0 0
0 0 0 0 0 0 0 0 0 0
0 0 0 0 0 0 0 0 0 0
0 0 0 0 0 0 0 0 0 0
0 0 0 0 0 0 0 0 0 0
0 0 0 0 0 0 0 0 0 0
0 0 0 0 0 0 0 0 0 0
0 0 0 0 0 0 0 0 0 0
0 0 0 0 0 0 0 0 0 0
0 0 0 0 0 0 0 0 0 0
0 0 0 0 0 0 0 0 0 0
0 0 0 0 0 0 0 0 0 0
0 0 0 0 0 0 0 0 0 0
0 0 0 0 0 0 0 0 0 0
0 0 0 0 0 0 0 0 0 0
0 0 0 0 0 0 0 0 0 0
0 0 0 0 0 0 0 0 0 0
0 0 0 0 0 0 0 0 0 0
0 0 0 0 0 0 0 0 0 0
0 0 0 0 0 0 0 0 0 0
0 0 0 0 0 0 0 0 0 0
0 0 0 0 0 0 0 0 0 0
0 0 0 0 0 0 0 0 0 0
0 0 0 0 0 0 0 0 0 0
0 0 0 0 0 0 0 0 0 0
0 0 0 0 0 0 0 0 0 0
0 0 0 0 0 0 0 0 0 0
0 0 0 0 0 0 0 0 0 0
0 0 0 0 0 0 0 0 0 0
0 0 0 0 0 0 0 0 0 0
0 0 0 0 0 0 0 0 0 0
0 0 0 0 0 0 0 0 0 0
0 0 0 0 0 0 0 0 0 0
0 0 0 0 0 0 0 0 0 0
0 0 0 0 0 0 0 0 0 0
0 0 0 0 0 0 0 0 0 0
0 0 0 0 0 0 0 0 0 0
0 0 0 0 0 0 0 0 0 0
0 0 0 0 0 0 0 0 0 0
0 0 0 0 0 0 0 0 0 0
0 0 0 0 0 0 0 0 0 0
0 0 0 0 0 0 0 0 0 0
0 0 0 0 0 0 0 0 0 0
0 0 0 0 0 0 0 0 0 0
0 0 0 0 0 0 0 0 0 0
0 0 0 0 0 0 0 0 0 0
0 0 0 0 0 0 0 0 0 0
0 0 0 0 0 0 0 0 0 0
0 0 0 0 0 0 0 0 0 0
0 0 0 0 0 0 0 0 0 0
0 0 0 0 0 0 0 0 0 0
0 0 0 0 0 0 0 0 0 0
0 0 0 0 0 0 0 0 0 0
0 0 0 0 0 0 0 0 0 0
0 0 0 0 0 0 0 0 0 0
0 0 0 0 0 0 0 0 0 0
0 0 0 0 0 0 0 0 0 0
0 0 0 0 0 0 0 0 0 0
0 0 0 0 0 0 0 0 0 0
0 0 0 0 0 0 0 0 0 0
0 0 0 0 0 0 0 0 0 0
0 0 0 0 0 0 0 0 0 0
0 0 0 0 0 0 0 0 0 0
0 0 0 0 0 0 0 0 0 0
0 0 0 0 0 0 0 0 0 0
0 0 0 0 0 0 0 0 0 0
0 0 0 0 0 0 0 0 0 0
0 0 0 0 0 0 0 0 0 0
0 0 0 0 0 0 0 0 0 0
0 0 0 0 0 0 0 0 0 0
0 0 0 0 0 0 0 0 0 0
0 0 0 0 0 0 0 0 0 0
0 0 0 0 0 0 0 0 0 0
0 0 0 0 0 0 0 0 0 0
0 0 0 0 0 0 0 0 0 0
0 0 0 0 0 0 0 0 0 0
0 0 0 0 0 0 0 0 0 0
0 0 0 0 0 0 0 0 0 0
0 0 0 0 0 0 0 0 0 0
0 0 0 0 0 0 0 0 0 0
0 0 0 0 0 0 0 0 0 0
0 0 0 0 0 0 0 0 0 0
0 0 0 0 0 0 0 0 0 0
0 0 0 0 0 0 0 0 0 0
0 0 0 0 0 0 0 0 0 0
0 0 0 0 0 0 0 0 0 0
0 0 0 
d 1 994 float
4.02433e-05 0.00010679 0.000114637 7.34005e-05 7.793e-05 9.46774e-05 8.50458e-05 7.9951e-05 0.000118221 6.88314e-05 0.000113123
0.00012548 8.2699e-05 0.000121707 7.73702e-05 0.00011546 0.00011547 0.00012866 8.86813e-05 0.000105251 5.78335e-05
9.14199e-05 8.30106e-05 0.000134524 0.000127307 0.000111202 0.000136771 0.00010209 0.000104149 0.000131486 0.000116541
0.000110808 4.04186e-05 5.43435e-05 0.000114087 6.78665e-05 0.000125844 0.000101779 0.000116773 9.82955e-05 5.87438e-05
0.000126017 0.00012449 5.26043e-05 0.000130964 0.000137212 9.01337e-05 0.000104918 6.65054e-05 0.00013644 0.000123422
8.41661e-05 0.000122243 0.000133254 6.93953e-05 0.000116865 0.00011692 9.33642e-05 8.81089e-05 0.000104407 0.000111521
4.8349e-05 1.10514e-05 2.47609e-05 0.000131924 8.59516e-05 6.45803e-05 5.7394e-05 6.66471e-05 5.89837e-05 5.03695e-05
0.000109549 4.52079e-05 0.00011679 0.000101459 7.41152e-05 9.57757e-05 8.44792e-05 0.000105447 6.84668e-05 0.000116933
0.000129481 4.44452e-05 4.43551e-05 0.000101636 0.000101421 6.40354e-05 0.000124014 0.000117789 5.24898e-05 0.000102038
6.41777e-05 6.69228e-05 9.29295e-05 6.84649e-05 0.000111379 0.000114604 0.000104914 0.000104338 5.77445e-05 0.00010565
0.00012221 0.000100063 4.12145e-05 9.21362e-05 6.71197e-05 0.000104229 9.54526e-05 9.0052e-05 0.000102312 0.000129873
3.99785e-05 8.77804e-05 0.000104051 0.000112983 0.000113942 4.37956e-05 0.000102128 9.44496e-05 0.000121322 7.16297e-05
0.00010551 0.000114693 7.91021e-05 1.10278e-05 0.000123016 2.64697e-05 7.93196e-05 4.25282e-05 0.000101871 0.00011542
7.7859e-05 5.26444e-05 8.8943e-05 8.02316e-05 2.18036e-05 5.07662e-05 5.24078e-05 8.49956e-05 8.80722e-05 6.77329e-05
4.16026e-05 4.49185e-05 0.000105382 8.06001e-05 0.00010232 9.49916e-05 9.99653e-05 0.000108646 7.38411e-05 3.24007e-05
9.47786e-05 0.000106468 0.000115941 0.000119497 8.60755e-05 5.49105e-05 0.000104767 4.33742e-05 8.45917e-05 2.48658e-05
6.12655e-05 6.89253e-05 9.24729e-05 0.000114471 9.99321e-05 5.75187e-05 4.88473e-05 6.00325e-05 7.15289e-05 0.000112146
0.00011424 5.47724e-05 6.54017e-05 7.65675e-05 7.40115e-05 5.69493e-05 6.43893e-05 8.78568e-05 9.76756e-05 7.48248e-05
0.000107751 5.96242e-05 7.73378e-05 0.000104893 2.06274e-05 3.78163e-05 6.8995e-05 9.79175e-05 7.36688e-05 8.54417e-05
0.000104394 0.000103684 8.18386e-05 7.37415e-05 6.70936e-05 8.66004e-05 3.44373e-05 6.13585e-05 8.28267e-05 7.24617e-05
6.54113e-05 0.000101947 8.81272e-05 0.000101055 9.16262e-05 5.71127e-05 1.693e-05 4.7345e-05 7.67466e-05 7.14988e-05
3.60947e-05 9.44771e-05 3.7548e-05 8.28211e-05 6.41088e-05 4.25614e-05 9.53862e-05 5.37867e-05 6.81821e-05 5.80036e-05
8.69847e-05 9.55537e-05 9.35985e-05 3.70256e-05 5.13292e-05 7.08983e-05 4.14332e-05 8.90919e-06 9.28015e-05 5.88978e-05
0.000102739 8.97021e-05 5.54823e-05 5.61601e-05 7.07722e-05 6.95422e-05 5.61796e-05 5.99548e-05 9.54035e-05 8.56955e-05
8.81711e-05 7.14482e-05 6.38551e-05 4.85748e-05 5.66328e-05 8.24367e-05 6.72143e-05 4.02367e-05 2.73199e-05 6.40643e-05
2.78727e-05 3.17589e-05 1.55376e-05 6.76802e-05 9.62838e-05 6.70017e-05 5.56634e-05 6.29143e-05 8.45675e-05 1.7482e-05
5.69497e-05 2.38525e-05 9.03463e-05 6.94589e-05 6.03597e-05 3.08585e-05 7.53662e-05 3.18593e-05 3.36962e-05 3.29628e-05
7.16618e-05 7.28125e-05 8.38745e-05 2.68475e-05 1.74798e-05 5.1694e-05 5.91312e-05 3.93696e-05 6.63395e-05 4.09002e-05
3.89472e-05 1.5715e-05 7.30924e-05 9.135e-05 1.7822e-05 4.64649e-05 9.16517e-05 6.88793e-05 2.70459e-05 7.38254e-05
1.60806e-05 5.03594e-05 8.50025e-05 4.78063e-05 8.42109e-05 3.69233e-05 7.14536e-05 3.6362e-05 7.27119e-05 5.85075e-05
4.38638e-05 8.71291e-05 7.75967e-05 6.88754e-05 7.35021e-05 5.45178e-05 5.30225e-05 6.89773e-05 5.21083e-05 5.06264e-05
8.60389e-05 2.92824e-05 6.02072e-05 4.39547e-05 6.89204e-05 4.7744e-05 2.98578e-05 7.72826e-05 8.27579e-05 2.97021e-05
7.90418e-05 7.07035e-05 7.40042e-05 5.1612e-05 7.07463e-05 4.55603e-05 7.25985e-05 1.95619e-05 5.74367e-05 4.90593e-05
8.62138e-05 1.24938e-05 3.00415e-05 6.40205e-05 8.82984e-05 4.64764e-05 5.8853e-05 2.47159e-05 8.83074e-05 6.74621e-05
3.44317e-05 6.18061e-05 4.36087e-05 4.71099e-05 5.36608e-05 2.32073e-05 3.013e-05 7.86944e-05 5.6955e-05 2.52662e-05
2.50133e-05 5.74122e-05 4.14086e-05 3.76596e-05 1.82276e-05 3.45597e-05 5.67116e-05 5.86816e-05 4.65898e-05 6.68532e-05
1.61816e-05 1.50671e-05 3.68646e-05 4.10852e-05 1.47119e-05 7.29913e-05 7.0821e-05 5.34921e-05 7.05495e-05 3.79811e-05
4.31313e-05 3.09357e-05 5.54664e-05 3.18456e-05 5.00063e-05 3.94472e-05 5.89069e-05 4.16316e-05 6.24627e-05 3.14227e-05
6.79032e-05 5.6874e-05 3.96118e-05 3.82576e-05 3.32712e-05 6.87781e-05 5.28879e-05 5.38856e-05 4.07599e-05 7.16205e-05
5.56982e-05 4.53351e-05 3.40168e-05 7.51268e-05 7.63082e-05 4.84834e-05 2.33413e-05 4.22102e-05 2.54384e-05 4.17594e-05
6.01805e-05 7.92183e-05 5.42115e-05 5.75409e-05 5.8135e-05 1.26974e-05 5.16755e-05 4.41362e-05 6.14456e-05 7.53417e-05
7.4254e-05 7.06351e-05 8.08319e-05 7.44213e-05 1.5275e-05 2.29701e-05 8.0162e-05 6.04222e-05 7.03565e-05 3.62669e-05
2.72402e-05 4.65734e-05 3.46607e-05 5.30774e-05 3.33597e-05 2.44903e-05 5.77601e-05 6.51774e-05 8.19027e-05 6.83105e-05
2.70703e-05 2.18733e-05 6.46074e-05 5.26287e-05 6.45914e-05 3.42021e-05 3.89045e-05 3.88514e-05 5.57262e-05 5.44415e-05
6.94647e-05 4.36012e-05 7.98559e-05 7.23208e-05 7.6693e-05 4.62859e-05 1.46855e-05 6.34807e-05 3.69032e-05 6.98722e-05
7.08375e-05 6.55971e-05 5.24089e-05 4.00776e-05 5.57622e-05 1.08432e-05 3.27849e-05 6.50256e-05 4.48757e-05 6.5597e-05
8.12582e-05 5.92915e-05 4.10966e-05 6.70758e-05 3.14791e-05 7.1262e-05 1.25099e-05 4.50504e-05 3.48524e-05 4.31389e-05
4.04521e-05 2.3924e-05 4.99793e-05 1.92802e-05 4.7493e-05 5.29494e-05 3.45985e-05 4.83241e-05 4.39504e-05 7.7739e-05
4.51299e-05 4.55512e-05 7.89058e-05 5.59474e-05 2.11402e-05 8.98399e-06 4.53349e-05 3.10595e-05 5.35189e-05 1.62739e-05
4.15562e-05 3.06401e-05 6.7204e-05 2.86678e-05 7.69417e-05 7.99217e-05 5.24529e-05 2.33338e-05 6.72055e-05 2.87833e-05
5.90678e-05 7.9707e-05 1.81826e-05 8.03001e-05 3.51194e-05 3.75423e-05 4.40765e-05 7.65077e-05 7.27704e-05 2.51288e-05
5.74994e-05 2.56736e-05 5.36105e-05 8.02789e-05 4.28846e-05 6.91001e-05 2.91757e-05 5.88705e-05 5.10451e-05 6.54988e-05
5.50128e-05 6.16112e-05 7.06544e-05 7.98219e-05 6.42872e-05 4.42028e-05 8.29947e-05 6.71637e-05 8.03743e-05 6.30307e-05
7.6339e-05 7.52563e-05 7.66762e-05 7.40918e-05 7.62348e-05 3.15875e-05 1.42578e-05 7.99065e-05 5.85494e-05 2.76014e-05
4.12754e-05 7.41225e-05 5.60688e-05 1.48778e-05 8.99952e-06 2.89624e-05 3.24423e-05 3.39628e-05 6.13302e-05 7.4951e-06
5.79005e-05 3.17756e-05 2.32655e-05 6.15835e-05 1.60733e-05 1.0806e-05 2.77371e-05 2.03049e-05 5.89635e-05 5.07372e-05
8.9187e-06 1.41955e-05 1.04668e-05 3.69413e-05 3.12135e-05 6.02255e-05 6.38888e-05 7.49855e-05 6.72074e-05 6.17911e-05
6.63083e-05 5.88264e-05 4.27494e-05 7.1829e-05 6.20841e-05 8.04276e-05 4.21747e-05 5.22838e-05 4.7057e-05 8.18008e-05
8.22295e-05 2.37902e-05 6.39042e-05 7.72611e-06 7.2193e-05 7.33382e-05 3.31505e-05 5.45819e-05 5.37348e-05 3.898e-05
2.83721e-05 7.82395e-05 5.96979e-05 2.33687e-05 8.51614e-05 4.36403e-05 4.14732e-05 7.52828e-05 4.9893e-05 4.23651e-05
5.69087e-06 8.47084e-05 2.87924e-05 5.38118e-05 2.85672e-05 5.12529e-05 7.47461e-05 5.84622e-05 4.81982e-05 7.99134e-05
7.06257e-05 7.47796e-05 2.80235e-05 6.6813e-05 4.81792e-05 3.51742e-05 7.53594e-05 6.29364e-05 1.83117e-05 6.35763e-05
4.47426e-05 1.54174e-05 2.50047e-05 6.06744e-05 6.88239e-05 2.52777e-05 1.10006e-05 5.23279e-05 8.2658e-05 6.63469e-05
5.61687e-05 5.40633e-05 6.06748e-05 8.08452e-05 6.22566e-05 5.4386e-05 3.79152e-05 5.58657e-05 2.8101e-05 8.92503e-05
3.37727e-05 6.86833e-05 6.74618e-05 7.37239e-05 8.78156e-05 4.79529e-05 6.30623e-05 6.15248e-05 4.787e-05 6.05035e-05
1.51456e-05 8.13571e-05 7.77571e-05 6.19849e-05 9.89609e-06 4.36837e-05 8.21465e-05 2.72406e-05 7.43516e-05 1.15448e-05
2.70452e-05 8.61475e-05 2.23378e-05 3.52492e-05 8.10312e-05 2.7206e-05 8.9178e-05 6.47973e-05 8.97341e-05 8.96644e-05
6.52933e-05 6.5922e-05 7.71002e-05 4.13615e-05 8.98426e-05 7.327e-05 6.69811e-05 2.75612e-05 7.39021e-05 3.11605e-05
4.26716e-05 5.70758e-05 7.82857e-05 5.89599e-05 7.72814e-05 6.69812e-06 5.41674e-05 8.45318e-05 4.42037e-05 4.17244e-05
8.5249e-05 7.0796e-05 6.04015e-05 4.71689e-05 3.82261e-05 8.63342e-05 8.52506e-05 3.78185e-05 1.15339e-05 8.09039e-05
8.19666e-05 5.73789e-05 4.59911e-05 8.36895e-05 5.16031e-05 6.14592e-05 1.40055e-05 3.5181e-05 2.20342e-05 2.38395e-05
3.59609e-05 7.41393e-05 4.98473e-05 6.54535e-05 6.54881e-05 4.33557e-05 5.98687e-05 7.71975e-05 3.18092e-05 1.62175e-05
4.83768e-05 6.19963e-05 6.71135e-05 6.27136e-05 1.10942e-05 4.89738e-05 3.23811e-05 2.21074e-05 1.10762e-05 7.79259e-05
4.96162e-05 9.09018e-05 6.29347e-05 7.90157e-05 2.32907e-05 7.73504e-05 6.69254e-05 9.0989e-05 5.32291e-05 5.62074e-06
1.85891e-05 5.55288e-05 3.75042e-05 8.26622e-05 8.29674e-05 8.48673e-05 4.98132e-05 1.59552e-05 4.12153e-05 8.29942e-05